ITEM: TIMESTEP
0
ITEM: NUMBER OF ATOMS
1
ITEM: BOX BOUNDS pp pp pp
0.0000000000000000e+00 3.6000000000000000e+01
0.0000000000000000e+00 3.6000000000000000e+01
0.0000000000000000e+00 3.6000000000000000e+01
ITEM: ATOMS id type mol xu yu zu ix iy iz
5401 2 5401 15.1467 16.0064 14.6447 0 0 0
ITEM: TIMESTEP
1000
ITEM: NUMBER OF ATOMS
1
ITEM: BOX BOUNDS pp pp pp
0.0000000000000000e+00 3.6000000000000000e+01
0.0000000000000000e+00 3.6000000000000000e+01
0.0000000000000000e+00 3.6000000000000000e+01
ITEM: ATOMS id type mol xu yu zu ix iy iz
5401 2 5401 14.5457 15.8211 14.4951 0 0 0
ITEM: TIMESTEP
2000
ITEM: NUMBER OF ATOMS
1
ITEM: BOX BOUNDS pp pp pp
0.0000000000000000e+00 3.6000000000000000e+01
0.0000000000000000e+00 3.6000000000000000e+01
0.0000000000000000e+00 3.6000000000000000e+01
ITEM: ATOMS id type mol xu yu zu ix iy iz
5401 2 5401 14.3205 15.1609 14.1925 0 0 0
ITEM: TIMESTEP
3000
ITEM: NUMBER OF ATOMS
1
ITEM: BOX BOUNDS pp pp pp
0.0000000000000000e+00 3.6000000000000000e+01
0.0000000000000000e+00 3.6000000000000000e+01
0.0000000000000000e+00 3.6000000000000000e+01
ITEM: ATOMS id type mol xu yu zu ix iy iz
5401 2 5401 14.1098 15.8127 14.6415 0 0 0
ITEM: TIMESTEP
4000
ITEM: NUMBER OF ATOMS
1
ITEM: BOX BOUNDS pp pp pp
0.0000000000000000e+00 3.6000000000000000e+01
0.0000000000000000e+00 3.6000000000000000e+01
0.0000000000000000e+00 3.6000000000000000e+01
ITEM: ATOMS id type mol xu yu zu ix iy iz
5401 2 5401 14.0803 15.1129 14.8867 0 0 0
ITEM: TIMESTEP
5000
ITEM: NUMBER OF ATOMS
1
ITEM: BOX BOUNDS pp pp pp
0.0000000000000000e+00 3.6000000000000000e+01
0.0000000000000000e+00 3.6000000000000000e+01
0.0000000000000000e+00 3.6000000000000000e+01
ITEM: ATOMS id type mol xu yu zu ix iy iz
5401 2 5401 14.3326 14.8216 14.8866 0 0 0
ITEM: TIMESTEP
6000
ITEM: NUMBER OF ATOMS
1
ITEM: BOX BOUNDS pp pp pp
0.0000000000000000e+00 3.6000000000000000e+01
0.0000000000000000e+00 3.6000000000000000e+01
0.0000000000000000e+00 3.6000000000000000e+01
ITEM: ATOMS id type mol xu yu zu ix iy iz
5401 2 5401 14.9733 14.492 14.9762 0 0 0
ITEM: TIMESTEP
7000
ITEM: NUMBER OF ATOMS
1
ITEM: BOX BOUNDS pp pp pp
0.0000000000000000e+00 3.6000000000000000e+01
0.0000000000000000e+00 3.6000000000000000e+01
0.0000000000000000e+00 3.6000000000000000e+01
ITEM: ATOMS id type mol xu yu zu ix iy iz
5401 2 5401 15.5918 14.657 14.9174 0 0 0
ITEM: TIMESTEP
8000
ITEM: NUMBER OF ATOMS
1
ITEM: BOX BOUNDS pp pp pp
0.0000000000000000e+00 3.6000000000000000e+01
0.0000000000000000e+00 3.6000000000000000e+01
0.0000000000000000e+00 3.6000000000000000e+01
ITEM: ATOMS id type mol xu yu zu ix iy iz
5401 2 5401 16.4256 14.9489 14.8409 0 0 0
ITEM: TIMESTEP
9000
ITEM: NUMBER OF ATOMS
1
ITEM: BOX BOUNDS pp pp pp
0.0000000000000000e+00 3.6000000000000000e+01
0.0000000000000000e+00 3.6000000000000000e+01
0.0000000000000000e+00 3.6000000000000000e+01
ITEM: ATOMS id type mol xu yu zu ix iy iz
5401 2 5401 16.5752 14.4705 14.6067 0 0 0
ITEM: TIMESTEP
10000
ITEM: NUMBER OF ATOMS
1
ITEM: BOX BOUNDS pp pp pp
0.0000000000000000e+00 3.6000000000000000e+01
0.0000000000000000e+00 3.6000000000000000e+01
0.0000000000000000e+00 3.6000000000000000e+01
ITEM: ATOMS id type mol xu yu zu ix iy iz
5401 2 5401 16.4067 14.5023 14.5406 0 0 0
ITEM: TIMESTEP
11000
ITEM: NUMBER OF ATOMS
1
ITEM: BOX BOUNDS pp pp pp
0.0000000000000000e+00 3.6000000000000000e+01
0.0000000000000000e+00 3.6000000000000000e+01
0.0000000000000000e+00 3.6000000000000000e+01
ITEM: ATOMS id type mol xu yu zu ix iy iz
5401 2 5401 15.7643 13.8443 14.7021 0 0 0
ITEM: TIMESTEP
12000
ITEM: NUMBER OF ATOMS
1
ITEM: BOX BOUNDS pp pp pp
0.0000000000000000e+00 3.6000000000000000e+01
0.0000000000000000e+00 3.6000000000000000e+01
0.0000000000000000e+00 3.6000000000000000e+01
ITEM: ATOMS id type mol xu yu zu ix iy iz
5401 2 5401 15.8925 14.0542 14.4813 0 0 0
ITEM: TIMESTEP
13000
ITEM: NUMBER OF ATOMS
1
ITEM: BOX BOUNDS pp pp pp
0.0000000000000000e+00 3.6000000000000000e+01
0.0000000000000000e+00 3.6000000000000000e+01
0.0000000000000000e+00 3.6000000000000000e+01
ITEM: ATOMS id type mol xu yu zu ix iy iz
5401 2 5401 16.0517 14.0331 14.4532 0 0 0
ITEM: TIMESTEP
14000
ITEM: NUMBER OF ATOMS
1
ITEM: BOX BOUNDS pp pp pp
0.0000000000000000e+00 3.6000000000000000e+01
0.0000000000000000e+00 3.6000000000000000e+01
0.0000000000000000e+00 3.6000000000000000e+01
ITEM: ATOMS id type mol xu yu zu ix iy iz
5401 2 5401 15.8653 13.6901 14.2993 0 0 0
ITEM: TIMESTEP
15000
ITEM: NUMBER OF ATOMS
1
ITEM: BOX BOUNDS pp pp pp
0.0000000000000000e+00 3.6000000000000000e+01
0.0000000000000000e+00 3.6000000000000000e+01
0.0000000000000000e+00 3.6000000000000000e+01
ITEM: ATOMS id type mol xu yu zu ix iy iz
5401 2 5401 15.1356 13.3672 14.4152 0 0 0
ITEM: TIMESTEP
16000
ITEM: NUMBER OF ATOMS
1
ITEM: BOX BOUNDS pp pp pp
0.0000000000000000e+00 3.6000000000000000e+01
0.0000000000000000e+00 3.6000000000000000e+01
0.0000000000000000e+00 3.6000000000000000e+01
ITEM: ATOMS id type mol xu yu zu ix iy iz
5401 2 5401 15.5552 12.5432 14.6248 0 0 0
ITEM: TIMESTEP
17000
ITEM: NUMBER OF ATOMS
1
ITEM: BOX BOUNDS pp pp pp
0.0000000000000000e+00 3.6000000000000000e+01
0.0000000000000000e+00 3.6000000000000000e+01
0.0000000000000000e+00 3.6000000000000000e+01
ITEM: ATOMS id type mol xu yu zu ix iy iz
5401 2 5401 15.7966 12.9506 14.93 0 0 0
ITEM: TIMESTEP
18000
ITEM: NUMBER OF ATOMS
1
ITEM: BOX BOUNDS pp pp pp
0.0000000000000000e+00 3.6000000000000000e+01
0.0000000000000000e+00 3.6000000000000000e+01
0.0000000000000000e+00 3.6000000000000000e+01
ITEM: ATOMS id type mol xu yu zu ix iy iz
5401 2 5401 15.8417 13.1425 14.8721 0 0 0
ITEM: TIMESTEP
19000
ITEM: NUMBER OF ATOMS
1
ITEM: BOX BOUNDS pp pp pp
0.0000000000000000e+00 3.6000000000000000e+01
0.0000000000000000e+00 3.6000000000000000e+01
0.0000000000000000e+00 3.6000000000000000e+01
ITEM: ATOMS id type mol xu yu zu ix iy iz
5401 2 5401 15.963 13.2406 14.7789 0 0 0
ITEM: TIMESTEP
20000
ITEM: NUMBER OF ATOMS
1
ITEM: BOX BOUNDS pp pp pp
0.0000000000000000e+00 3.6000000000000000e+01
0.0000000000000000e+00 3.6000000000000000e+01
0.0000000000000000e+00 3.6000000000000000e+01
ITEM: ATOMS id type mol xu yu zu ix iy iz
5401 2 5401 16.3732 13.5601 14.8633 0 0 0
ITEM: TIMESTEP
21000
ITEM: NUMBER OF ATOMS
1
ITEM: BOX BOUNDS pp pp pp
0.0000000000000000e+00 3.6000000000000000e+01
0.0000000000000000e+00 3.6000000000000000e+01
0.0000000000000000e+00 3.6000000000000000e+01
ITEM: ATOMS id type mol xu yu zu ix iy iz
5401 2 5401 15.8375 13.8 14.9638 0 0 0
ITEM: TIMESTEP
22000
ITEM: NUMBER OF ATOMS
1
ITEM: BOX BOUNDS pp pp pp
0.0000000000000000e+00 3.6000000000000000e+01
0.0000000000000000e+00 3.6000000000000000e+01
0.0000000000000000e+00 3.6000000000000000e+01
ITEM: ATOMS id type mol xu yu zu ix iy iz
5401 2 5401 16.0748 13.4 15.3677 0 0 0
ITEM: TIMESTEP
23000
ITEM: NUMBER OF ATOMS
1
ITEM: BOX BOUNDS pp pp pp
0.0000000000000000e+00 3.6000000000000000e+01
0.0000000000000000e+00 3.6000000000000000e+01
0.0000000000000000e+00 3.6000000000000000e+01
ITEM: ATOMS id type mol xu yu zu ix iy iz
5401 2 5401 15.9379 12.8328 14.9833 0 0 0
ITEM: TIMESTEP
24000
ITEM: NUMBER OF ATOMS
1
ITEM: BOX BOUNDS pp pp pp
0.0000000000000000e+00 3.6000000000000000e+01
0.0000000000000000e+00 3.6000000000000000e+01
0.0000000000000000e+00 3.6000000000000000e+01
ITEM: ATOMS id type mol xu yu zu ix iy iz
5401 2 5401 15.7741 13.6012 14.8297 0 0 0
ITEM: TIMESTEP
25000
ITEM: NUMBER OF ATOMS
1
ITEM: BOX BOUNDS pp pp pp
0.0000000000000000e+00 3.6000000000000000e+01
0.0000000000000000e+00 3.6000000000000000e+01
0.0000000000000000e+00 3.6000000000000000e+01
ITEM: ATOMS id type mol xu yu zu ix iy iz
5401 2 5401 15.8561 13.3367 15.7922 0 0 0
ITEM: TIMESTEP
26000
ITEM: NUMBER OF ATOMS
1
ITEM: BOX BOUNDS pp pp pp
0.0000000000000000e+00 3.6000000000000000e+01
0.0000000000000000e+00 3.6000000000000000e+01
0.0000000000000000e+00 3.6000000000000000e+01
ITEM: ATOMS id type mol xu yu zu ix iy iz
5401 2 5401 16.1617 13.1568 15.8434 0 0 0
ITEM: TIMESTEP
27000
ITEM: NUMBER OF ATOMS
1
ITEM: BOX BOUNDS pp pp pp
0.0000000000000000e+00 3.6000000000000000e+01
0.0000000000000000e+00 3.6000000000000000e+01
0.0000000000000000e+00 3.6000000000000000e+01
ITEM: ATOMS id type mol xu yu zu ix iy iz
5401 2 5401 16.8483 13.7064 16.1931 0 0 0
ITEM: TIMESTEP
28000
ITEM: NUMBER OF ATOMS
1
ITEM: BOX BOUNDS pp pp pp
0.0000000000000000e+00 3.6000000000000000e+01
0.0000000000000000e+00 3.6000000000000000e+01
0.0000000000000000e+00 3.6000000000000000e+01
ITEM: ATOMS id type mol xu yu zu ix iy iz
5401 2 5401 17.2359 14.5201 16.8448 0 0 0
ITEM: TIMESTEP
29000
ITEM: NUMBER OF ATOMS
1
ITEM: BOX BOUNDS pp pp pp
0.0000000000000000e+00 3.6000000000000000e+01
0.0000000000000000e+00 3.6000000000000000e+01
0.0000000000000000e+00 3.6000000000000000e+01
ITEM: ATOMS id type mol xu yu zu ix iy iz
5401 2 5401 16.885 14.2875 16.6167 0 0 0
ITEM: TIMESTEP
30000
ITEM: NUMBER OF ATOMS
1
ITEM: BOX BOUNDS pp pp pp
0.0000000000000000e+00 3.6000000000000000e+01
0.0000000000000000e+00 3.6000000000000000e+01
0.0000000000000000e+00 3.6000000000000000e+01
ITEM: ATOMS id type mol xu yu zu ix iy iz
5401 2 5401 16.2804 14.1922 17.3096 0 0 0
ITEM: TIMESTEP
31000
ITEM: NUMBER OF ATOMS
1
ITEM: BOX BOUNDS pp pp pp
0.0000000000000000e+00 3.6000000000000000e+01
0.0000000000000000e+00 3.6000000000000000e+01
0.0000000000000000e+00 3.6000000000000000e+01
ITEM: ATOMS id type mol xu yu zu ix iy iz
5401 2 5401 16.4818 14.7792 16.1712 0 0 0
ITEM: TIMESTEP
32000
ITEM: NUMBER OF ATOMS
1
ITEM: BOX BOUNDS pp pp pp
0.0000000000000000e+00 3.6000000000000000e+01
0.0000000000000000e+00 3.6000000000000000e+01
0.0000000000000000e+00 3.6000000000000000e+01
ITEM: ATOMS id type mol xu yu zu ix iy iz
5401 2 5401 16.2596 14.672 15.4197 0 0 0
ITEM: TIMESTEP
33000
ITEM: NUMBER OF ATOMS
1
ITEM: BOX BOUNDS pp pp pp
0.0000000000000000e+00 3.6000000000000000e+01
0.0000000000000000e+00 3.6000000000000000e+01
0.0000000000000000e+00 3.6000000000000000e+01
ITEM: ATOMS id type mol xu yu zu ix iy iz
5401 2 5401 15.8453 14.6009 15.8735 0 0 0
ITEM: TIMESTEP
34000
ITEM: NUMBER OF ATOMS
1
ITEM: BOX BOUNDS pp pp pp
0.0000000000000000e+00 3.6000000000000000e+01
0.0000000000000000e+00 3.6000000000000000e+01
0.0000000000000000e+00 3.6000000000000000e+01
ITEM: ATOMS id type mol xu yu zu ix iy iz
5401 2 5401 15.8449 14.9874 16.0882 0 0 0
ITEM: TIMESTEP
35000
ITEM: NUMBER OF ATOMS
1
ITEM: BOX BOUNDS pp pp pp
0.0000000000000000e+00 3.6000000000000000e+01
0.0000000000000000e+00 3.6000000000000000e+01
0.0000000000000000e+00 3.6000000000000000e+01
ITEM: ATOMS id type mol xu yu zu ix iy iz
5401 2 5401 15.3013 14.5283 15.6619 0 0 0
ITEM: TIMESTEP
36000
ITEM: NUMBER OF ATOMS
1
ITEM: BOX BOUNDS pp pp pp
0.0000000000000000e+00 3.6000000000000000e+01
0.0000000000000000e+00 3.6000000000000000e+01
0.0000000000000000e+00 3.6000000000000000e+01
ITEM: ATOMS id type mol xu yu zu ix iy iz
5401 2 5401 15.038 15.0423 15.6918 0 0 0
ITEM: TIMESTEP
37000
ITEM: NUMBER OF ATOMS
1
ITEM: BOX BOUNDS pp pp pp
0.0000000000000000e+00 3.6000000000000000e+01
0.0000000000000000e+00 3.6000000000000000e+01
0.0000000000000000e+00 3.6000000000000000e+01
ITEM: ATOMS id type mol xu yu zu ix iy iz
5401 2 5401 15.6203 15.2638 14.6978 0 0 0
ITEM: TIMESTEP
38000
ITEM: NUMBER OF ATOMS
1
ITEM: BOX BOUNDS pp pp pp
0.0000000000000000e+00 3.6000000000000000e+01
0.0000000000000000e+00 3.6000000000000000e+01
0.0000000000000000e+00 3.6000000000000000e+01
ITEM: ATOMS id type mol xu yu zu ix iy iz
5401 2 5401 16.1449 15.3041 14.8841 0 0 0
ITEM: TIMESTEP
39000
ITEM: NUMBER OF ATOMS
1
ITEM: BOX BOUNDS pp pp pp
0.0000000000000000e+00 3.6000000000000000e+01
0.0000000000000000e+00 3.6000000000000000e+01
0.0000000000000000e+00 3.6000000000000000e+01
ITEM: ATOMS id type mol xu yu zu ix iy iz
5401 2 5401 16.6846 15.6615 15.2853 0 0 0
ITEM: TIMESTEP
40000
ITEM: NUMBER OF ATOMS
1
ITEM: BOX BOUNDS pp pp pp
0.0000000000000000e+00 3.6000000000000000e+01
0.0000000000000000e+00 3.6000000000000000e+01
0.0000000000000000e+00 3.6000000000000000e+01
ITEM: ATOMS id type mol xu yu zu ix iy iz
5401 2 5401 16.7497 15.6399 15.2493 0 0 0
ITEM: TIMESTEP
41000
ITEM: NUMBER OF ATOMS
1
ITEM: BOX BOUNDS pp pp pp
0.0000000000000000e+00 3.6000000000000000e+01
0.0000000000000000e+00 3.6000000000000000e+01
0.0000000000000000e+00 3.6000000000000000e+01
ITEM: ATOMS id type mol xu yu zu ix iy iz
5401 2 5401 16.8551 15.2105 15.2461 0 0 0
ITEM: TIMESTEP
42000
ITEM: NUMBER OF ATOMS
1
ITEM: BOX BOUNDS pp pp pp
0.0000000000000000e+00 3.6000000000000000e+01
0.0000000000000000e+00 3.6000000000000000e+01
0.0000000000000000e+00 3.6000000000000000e+01
ITEM: ATOMS id type mol xu yu zu ix iy iz
5401 2 5401 17.0186 14.6012 15.1657 0 0 0
ITEM: TIMESTEP
43000
ITEM: NUMBER OF ATOMS
1
ITEM: BOX BOUNDS pp pp pp
0.0000000000000000e+00 3.6000000000000000e+01
0.0000000000000000e+00 3.6000000000000000e+01
0.0000000000000000e+00 3.6000000000000000e+01
ITEM: ATOMS id type mol xu yu zu ix iy iz
5401 2 5401 17.5753 14.3827 14.7434 0 0 0
ITEM: TIMESTEP
44000
ITEM: NUMBER OF ATOMS
1
ITEM: BOX BOUNDS pp pp pp
0.0000000000000000e+00 3.6000000000000000e+01
0.0000000000000000e+00 3.6000000000000000e+01
0.0000000000000000e+00 3.6000000000000000e+01
ITEM: ATOMS id type mol xu yu zu ix iy iz
5401 2 5401 17.7453 14.1336 14.2125 0 0 0
ITEM: TIMESTEP
45000
ITEM: NUMBER OF ATOMS
1
ITEM: BOX BOUNDS pp pp pp
0.0000000000000000e+00 3.6000000000000000e+01
0.0000000000000000e+00 3.6000000000000000e+01
0.0000000000000000e+00 3.6000000000000000e+01
ITEM: ATOMS id type mol xu yu zu ix iy iz
5401 2 5401 18.2456 14.0986 14.6095 0 0 0
ITEM: TIMESTEP
46000
ITEM: NUMBER OF ATOMS
1
ITEM: BOX BOUNDS pp pp pp
0.0000000000000000e+00 3.6000000000000000e+01
0.0000000000000000e+00 3.6000000000000000e+01
0.0000000000000000e+00 3.6000000000000000e+01
ITEM: ATOMS id type mol xu yu zu ix iy iz
5401 2 5401 18.2893 14.6005 14.4046 0 0 0
ITEM: TIMESTEP
47000
ITEM: NUMBER OF ATOMS
1
ITEM: BOX BOUNDS pp pp pp
0.0000000000000000e+00 3.6000000000000000e+01
0.0000000000000000e+00 3.6000000000000000e+01
0.0000000000000000e+00 3.6000000000000000e+01
ITEM: ATOMS id type mol xu yu zu ix iy iz
5401 2 5401 17.8769 14.7785 15.1714 0 0 0
ITEM: TIMESTEP
48000
ITEM: NUMBER OF ATOMS
1
ITEM: BOX BOUNDS pp pp pp
0.0000000000000000e+00 3.6000000000000000e+01
0.0000000000000000e+00 3.6000000000000000e+01
0.0000000000000000e+00 3.6000000000000000e+01
ITEM: ATOMS id type mol xu yu zu ix iy iz
5401 2 5401 17.864 15.1157 15.3946 0 0 0
ITEM: TIMESTEP
49000
ITEM: NUMBER OF ATOMS
1
ITEM: BOX BOUNDS pp pp pp
0.0000000000000000e+00 3.6000000000000000e+01
0.0000000000000000e+00 3.6000000000000000e+01
0.0000000000000000e+00 3.6000000000000000e+01
ITEM: ATOMS id type mol xu yu zu ix iy iz
5401 2 5401 17.3701 15.3571 15.1321 0 0 0
ITEM: TIMESTEP
50000
ITEM: NUMBER OF ATOMS
1
ITEM: BOX BOUNDS pp pp pp
0.0000000000000000e+00 3.6000000000000000e+01
0.0000000000000000e+00 3.6000000000000000e+01
0.0000000000000000e+00 3.6000000000000000e+01
ITEM: ATOMS id type mol xu yu zu ix iy iz
5401 2 5401 16.9504 15.7492 15.0882 0 0 0
ITEM: TIMESTEP
51000
ITEM: NUMBER OF ATOMS
1
ITEM: BOX BOUNDS pp pp pp
0.0000000000000000e+00 3.6000000000000000e+01
0.0000000000000000e+00 3.6000000000000000e+01
0.0000000000000000e+00 3.6000000000000000e+01
ITEM: ATOMS id type mol xu yu zu ix iy iz
5401 2 5401 16.658 15.7967 14.6061 0 0 0
ITEM: TIMESTEP
52000
ITEM: NUMBER OF ATOMS
1
ITEM: BOX BOUNDS pp pp pp
0.0000000000000000e+00 3.6000000000000000e+01
0.0000000000000000e+00 3.6000000000000000e+01
0.0000000000000000e+00 3.6000000000000000e+01
ITEM: ATOMS id type mol xu yu zu ix iy iz
5401 2 5401 16.2426 15.7768 14.7105 0 0 0
ITEM: TIMESTEP
53000
ITEM: NUMBER OF ATOMS
1
ITEM: BOX BOUNDS pp pp pp
0.0000000000000000e+00 3.6000000000000000e+01
0.0000000000000000e+00 3.6000000000000000e+01
0.0000000000000000e+00 3.6000000000000000e+01
ITEM: ATOMS id type mol xu yu zu ix iy iz
5401 2 5401 16.0914 15.607 15.0227 0 0 0
ITEM: TIMESTEP
54000
ITEM: NUMBER OF ATOMS
1
ITEM: BOX BOUNDS pp pp pp
0.0000000000000000e+00 3.6000000000000000e+01
0.0000000000000000e+00 3.6000000000000000e+01
0.0000000000000000e+00 3.6000000000000000e+01
ITEM: ATOMS id type mol xu yu zu ix iy iz
5401 2 5401 16.1902 15.5186 15.1753 0 0 0
ITEM: TIMESTEP
55000
ITEM: NUMBER OF ATOMS
1
ITEM: BOX BOUNDS pp pp pp
0.0000000000000000e+00 3.6000000000000000e+01
0.0000000000000000e+00 3.6000000000000000e+01
0.0000000000000000e+00 3.6000000000000000e+01
ITEM: ATOMS id type mol xu yu zu ix iy iz
5401 2 5401 15.9759 15.406 15.3173 0 0 0
ITEM: TIMESTEP
56000
ITEM: NUMBER OF ATOMS
1
ITEM: BOX BOUNDS pp pp pp
0.0000000000000000e+00 3.6000000000000000e+01
0.0000000000000000e+00 3.6000000000000000e+01
0.0000000000000000e+00 3.6000000000000000e+01
ITEM: ATOMS id type mol xu yu zu ix iy iz
5401 2 5401 15.2924 15.0566 15.4856 0 0 0
ITEM: TIMESTEP
57000
ITEM: NUMBER OF ATOMS
1
ITEM: BOX BOUNDS pp pp pp
0.0000000000000000e+00 3.6000000000000000e+01
0.0000000000000000e+00 3.6000000000000000e+01
0.0000000000000000e+00 3.6000000000000000e+01
ITEM: ATOMS id type mol xu yu zu ix iy iz
5401 2 5401 15.2545 15.057 15.3787 0 0 0
ITEM: TIMESTEP
58000
ITEM: NUMBER OF ATOMS
1
ITEM: BOX BOUNDS pp pp pp
0.0000000000000000e+00 3.6000000000000000e+01
0.0000000000000000e+00 3.6000000000000000e+01
0.0000000000000000e+00 3.6000000000000000e+01
ITEM: ATOMS id type mol xu yu zu ix iy iz
5401 2 5401 15.0662 15.0623 15.7812 0 0 0
ITEM: TIMESTEP
59000
ITEM: NUMBER OF ATOMS
1
ITEM: BOX BOUNDS pp pp pp
0.0000000000000000e+00 3.6000000000000000e+01
0.0000000000000000e+00 3.6000000000000000e+01
0.0000000000000000e+00 3.6000000000000000e+01
ITEM: ATOMS id type mol xu yu zu ix iy iz
5401 2 5401 15.7132 14.1948 16.0047 0 0 0
ITEM: TIMESTEP
60000
ITEM: NUMBER OF ATOMS
1
ITEM: BOX BOUNDS pp pp pp
0.0000000000000000e+00 3.6000000000000000e+01
0.0000000000000000e+00 3.6000000000000000e+01
0.0000000000000000e+00 3.6000000000000000e+01
ITEM: ATOMS id type mol xu yu zu ix iy iz
5401 2 5401 16.5471 14.1147 15.8013 0 0 0
ITEM: TIMESTEP
61000
ITEM: NUMBER OF ATOMS
1
ITEM: BOX BOUNDS pp pp pp
0.0000000000000000e+00 3.6000000000000000e+01
0.0000000000000000e+00 3.6000000000000000e+01
0.0000000000000000e+00 3.6000000000000000e+01
ITEM: ATOMS id type mol xu yu zu ix iy iz
5401 2 5401 16.5911 14.1318 15.8106 0 0 0
ITEM: TIMESTEP
62000
ITEM: NUMBER OF ATOMS
1
ITEM: BOX BOUNDS pp pp pp
0.0000000000000000e+00 3.6000000000000000e+01
0.0000000000000000e+00 3.6000000000000000e+01
0.0000000000000000e+00 3.6000000000000000e+01
ITEM: ATOMS id type mol xu yu zu ix iy iz
5401 2 5401 16.4631 14.2091 16.1484 0 0 0
ITEM: TIMESTEP
63000
ITEM: NUMBER OF ATOMS
1
ITEM: BOX BOUNDS pp pp pp
0.0000000000000000e+00 3.6000000000000000e+01
0.0000000000000000e+00 3.6000000000000000e+01
0.0000000000000000e+00 3.6000000000000000e+01
ITEM: ATOMS id type mol xu yu zu ix iy iz
5401 2 5401 16.4701 14.7876 16.6277 0 0 0
ITEM: TIMESTEP
64000
ITEM: NUMBER OF ATOMS
1
ITEM: BOX BOUNDS pp pp pp
0.0000000000000000e+00 3.6000000000000000e+01
0.0000000000000000e+00 3.6000000000000000e+01
0.0000000000000000e+00 3.6000000000000000e+01
ITEM: ATOMS id type mol xu yu zu ix iy iz
5401 2 5401 16.7606 15.2896 15.7144 0 0 0
ITEM: TIMESTEP
65000
ITEM: NUMBER OF ATOMS
1
ITEM: BOX BOUNDS pp pp pp
0.0000000000000000e+00 3.6000000000000000e+01
0.0000000000000000e+00 3.6000000000000000e+01
0.0000000000000000e+00 3.6000000000000000e+01
ITEM: ATOMS id type mol xu yu zu ix iy iz
5401 2 5401 16.8299 15.3502 15.624 0 0 0
ITEM: TIMESTEP
66000
ITEM: NUMBER OF ATOMS
1
ITEM: BOX BOUNDS pp pp pp
0.0000000000000000e+00 3.6000000000000000e+01
0.0000000000000000e+00 3.6000000000000000e+01
0.0000000000000000e+00 3.6000000000000000e+01
ITEM: ATOMS id type mol xu yu zu ix iy iz
5401 2 5401 17.4367 14.9287 15.2927 0 0 0
ITEM: TIMESTEP
67000
ITEM: NUMBER OF ATOMS
1
ITEM: BOX BOUNDS pp pp pp
0.0000000000000000e+00 3.6000000000000000e+01
0.0000000000000000e+00 3.6000000000000000e+01
0.0000000000000000e+00 3.6000000000000000e+01
ITEM: ATOMS id type mol xu yu zu ix iy iz
5401 2 5401 18.5557 14.8169 15.0427 0 0 0
ITEM: TIMESTEP
68000
ITEM: NUMBER OF ATOMS
1
ITEM: BOX BOUNDS pp pp pp
0.0000000000000000e+00 3.6000000000000000e+01
0.0000000000000000e+00 3.6000000000000000e+01
0.0000000000000000e+00 3.6000000000000000e+01
ITEM: ATOMS id type mol xu yu zu ix iy iz
5401 2 5401 18.6806 15.4749 15.6262 0 0 0
ITEM: TIMESTEP
69000
ITEM: NUMBER OF ATOMS
1
ITEM: BOX BOUNDS pp pp pp
0.0000000000000000e+00 3.6000000000000000e+01
0.0000000000000000e+00 3.6000000000000000e+01
0.0000000000000000e+00 3.6000000000000000e+01
ITEM: ATOMS id type mol xu yu zu ix iy iz
5401 2 5401 18.0927 15.0115 15.0968 0 0 0
ITEM: TIMESTEP
70000
ITEM: NUMBER OF ATOMS
1
ITEM: BOX BOUNDS pp pp pp
0.0000000000000000e+00 3.6000000000000000e+01
0.0000000000000000e+00 3.6000000000000000e+01
0.0000000000000000e+00 3.6000000000000000e+01
ITEM: ATOMS id type mol xu yu zu ix iy iz
5401 2 5401 18.1374 14.7743 14.81 0 0 0
ITEM: TIMESTEP
71000
ITEM: NUMBER OF ATOMS
1
ITEM: BOX BOUNDS pp pp pp
0.0000000000000000e+00 3.6000000000000000e+01
0.0000000000000000e+00 3.6000000000000000e+01
0.0000000000000000e+00 3.6000000000000000e+01
ITEM: ATOMS id type mol xu yu zu ix iy iz
5401 2 5401 18.0406 14.6932 15.0892 0 0 0
ITEM: TIMESTEP
72000
ITEM: NUMBER OF ATOMS
1
ITEM: BOX BOUNDS pp pp pp
0.0000000000000000e+00 3.6000000000000000e+01
0.0000000000000000e+00 3.6000000000000000e+01
0.0000000000000000e+00 3.6000000000000000e+01
ITEM: ATOMS id type mol xu yu zu ix iy iz
5401 2 5401 18.7284 15.2193 15.0346 0 0 0
ITEM: TIMESTEP
73000
ITEM: NUMBER OF ATOMS
1
ITEM: BOX BOUNDS pp pp pp
0.0000000000000000e+00 3.6000000000000000e+01
0.0000000000000000e+00 3.6000000000000000e+01
0.0000000000000000e+00 3.6000000000000000e+01
ITEM: ATOMS id type mol xu yu zu ix iy iz
5401 2 5401 18.8764 15.1529 15.169 0 0 0
ITEM: TIMESTEP
74000
ITEM: NUMBER OF ATOMS
1
ITEM: BOX BOUNDS pp pp pp
0.0000000000000000e+00 3.6000000000000000e+01
0.0000000000000000e+00 3.6000000000000000e+01
0.0000000000000000e+00 3.6000000000000000e+01
ITEM: ATOMS id type mol xu yu zu ix iy iz
5401 2 5401 18.0459 15.6013 14.526 0 0 0
ITEM: TIMESTEP
75000
ITEM: NUMBER OF ATOMS
1
ITEM: BOX BOUNDS pp pp pp
0.0000000000000000e+00 3.6000000000000000e+01
0.0000000000000000e+00 3.6000000000000000e+01
0.0000000000000000e+00 3.6000000000000000e+01
ITEM: ATOMS id type mol xu yu zu ix iy iz
5401 2 5401 17.8281 15.9923 14.36 0 0 0
ITEM: TIMESTEP
76000
ITEM: NUMBER OF ATOMS
1
ITEM: BOX BOUNDS pp pp pp
0.0000000000000000e+00 3.6000000000000000e+01
0.0000000000000000e+00 3.6000000000000000e+01
0.0000000000000000e+00 3.6000000000000000e+01
ITEM: ATOMS id type mol xu yu zu ix iy iz
5401 2 5401 18.5183 15.9435 14.9306 0 0 0
ITEM: TIMESTEP
77000
ITEM: NUMBER OF ATOMS
1
ITEM: BOX BOUNDS pp pp pp
0.0000000000000000e+00 3.6000000000000000e+01
0.0000000000000000e+00 3.6000000000000000e+01
0.0000000000000000e+00 3.6000000000000000e+01
ITEM: ATOMS id type mol xu yu zu ix iy iz
5401 2 5401 19.1994 15.8965 15.2436 0 0 0
ITEM: TIMESTEP
78000
ITEM: NUMBER OF ATOMS
1
ITEM: BOX BOUNDS pp pp pp
0.0000000000000000e+00 3.6000000000000000e+01
0.0000000000000000e+00 3.6000000000000000e+01
0.0000000000000000e+00 3.6000000000000000e+01
ITEM: ATOMS id type mol xu yu zu ix iy iz
5401 2 5401 19.464 15.6796 15.7912 0 0 0
ITEM: TIMESTEP
79000
ITEM: NUMBER OF ATOMS
1
ITEM: BOX BOUNDS pp pp pp
0.0000000000000000e+00 3.6000000000000000e+01
0.0000000000000000e+00 3.6000000000000000e+01
0.0000000000000000e+00 3.6000000000000000e+01
ITEM: ATOMS id type mol xu yu zu ix iy iz
5401 2 5401 20.0157 16.1796 15.1771 0 0 0
ITEM: TIMESTEP
80000
ITEM: NUMBER OF ATOMS
1
ITEM: BOX BOUNDS pp pp pp
0.0000000000000000e+00 3.6000000000000000e+01
0.0000000000000000e+00 3.6000000000000000e+01
0.0000000000000000e+00 3.6000000000000000e+01
ITEM: ATOMS id type mol xu yu zu ix iy iz
5401 2 5401 20.195 16.702 15.6398 0 0 0
ITEM: TIMESTEP
81000
ITEM: NUMBER OF ATOMS
1
ITEM: BOX BOUNDS pp pp pp
0.0000000000000000e+00 3.6000000000000000e+01
0.0000000000000000e+00 3.6000000000000000e+01
0.0000000000000000e+00 3.6000000000000000e+01
ITEM: ATOMS id type mol xu yu zu ix iy iz
5401 2 5401 19.7938 16.7306 15.2854 0 0 0
ITEM: TIMESTEP
82000
ITEM: NUMBER OF ATOMS
1
ITEM: BOX BOUNDS pp pp pp
0.0000000000000000e+00 3.6000000000000000e+01
0.0000000000000000e+00 3.6000000000000000e+01
0.0000000000000000e+00 3.6000000000000000e+01
ITEM: ATOMS id type mol xu yu zu ix iy iz
5401 2 5401 19.904 15.6789 14.7612 0 0 0
ITEM: TIMESTEP
83000
ITEM: NUMBER OF ATOMS
1
ITEM: BOX BOUNDS pp pp pp
0.0000000000000000e+00 3.6000000000000000e+01
0.0000000000000000e+00 3.6000000000000000e+01
0.0000000000000000e+00 3.6000000000000000e+01
ITEM: ATOMS id type mol xu yu zu ix iy iz
5401 2 5401 19.9447 16.1324 15.0118 0 0 0
ITEM: TIMESTEP
84000
ITEM: NUMBER OF ATOMS
1
ITEM: BOX BOUNDS pp pp pp
0.0000000000000000e+00 3.6000000000000000e+01
0.0000000000000000e+00 3.6000000000000000e+01
0.0000000000000000e+00 3.6000000000000000e+01
ITEM: ATOMS id type mol xu yu zu ix iy iz
5401 2 5401 20.0706 15.5675 14.713 0 0 0
ITEM: TIMESTEP
85000
ITEM: NUMBER OF ATOMS
1
ITEM: BOX BOUNDS pp pp pp
0.0000000000000000e+00 3.6000000000000000e+01
0.0000000000000000e+00 3.6000000000000000e+01
0.0000000000000000e+00 3.6000000000000000e+01
ITEM: ATOMS id type mol xu yu zu ix iy iz
5401 2 5401 20.091 15.3981 15.3046 0 0 0
ITEM: TIMESTEP
86000
ITEM: NUMBER OF ATOMS
1
ITEM: BOX BOUNDS pp pp pp
0.0000000000000000e+00 3.6000000000000000e+01
0.0000000000000000e+00 3.6000000000000000e+01
0.0000000000000000e+00 3.6000000000000000e+01
ITEM: ATOMS id type mol xu yu zu ix iy iz
5401 2 5401 20.4978 15.0922 15.4972 0 0 0
ITEM: TIMESTEP
87000
ITEM: NUMBER OF ATOMS
1
ITEM: BOX BOUNDS pp pp pp
0.0000000000000000e+00 3.6000000000000000e+01
0.0000000000000000e+00 3.6000000000000000e+01
0.0000000000000000e+00 3.6000000000000000e+01
ITEM: ATOMS id type mol xu yu zu ix iy iz
5401 2 5401 20.9788 15.0582 15.5913 0 0 0
ITEM: TIMESTEP
88000
ITEM: NUMBER OF ATOMS
1
ITEM: BOX BOUNDS pp pp pp
0.0000000000000000e+00 3.6000000000000000e+01
0.0000000000000000e+00 3.6000000000000000e+01
0.0000000000000000e+00 3.6000000000000000e+01
ITEM: ATOMS id type mol xu yu zu ix iy iz
5401 2 5401 20.9823 14.7162 15.043 0 0 0
ITEM: TIMESTEP
89000
ITEM: NUMBER OF ATOMS
1
ITEM: BOX BOUNDS pp pp pp
0.0000000000000000e+00 3.6000000000000000e+01
0.0000000000000000e+00 3.6000000000000000e+01
0.0000000000000000e+00 3.6000000000000000e+01
ITEM: ATOMS id type mol xu yu zu ix iy iz
5401 2 5401 20.7609 14.7779 14.332 0 0 0
ITEM: TIMESTEP
90000
ITEM: NUMBER OF ATOMS
1
ITEM: BOX BOUNDS pp pp pp
0.0000000000000000e+00 3.6000000000000000e+01
0.0000000000000000e+00 3.6000000000000000e+01
0.0000000000000000e+00 3.6000000000000000e+01
ITEM: ATOMS id type mol xu yu zu ix iy iz
5401 2 5401 20.5191 14.687 14.5237 0 0 0
ITEM: TIMESTEP
91000
ITEM: NUMBER OF ATOMS
1
ITEM: BOX BOUNDS pp pp pp
0.0000000000000000e+00 3.6000000000000000e+01
0.0000000000000000e+00 3.6000000000000000e+01
0.0000000000000000e+00 3.6000000000000000e+01
ITEM: ATOMS id type mol xu yu zu ix iy iz
5401 2 5401 20.3955 14.5799 14.2798 0 0 0
ITEM: TIMESTEP
92000
ITEM: NUMBER OF ATOMS
1
ITEM: BOX BOUNDS pp pp pp
0.0000000000000000e+00 3.6000000000000000e+01
0.0000000000000000e+00 3.6000000000000000e+01
0.0000000000000000e+00 3.6000000000000000e+01
ITEM: ATOMS id type mol xu yu zu ix iy iz
5401 2 5401 19.8308 15.1179 14.0126 0 0 0
ITEM: TIMESTEP
93000
ITEM: NUMBER OF ATOMS
1
ITEM: BOX BOUNDS pp pp pp
0.0000000000000000e+00 3.6000000000000000e+01
0.0000000000000000e+00 3.6000000000000000e+01
0.0000000000000000e+00 3.6000000000000000e+01
ITEM: ATOMS id type mol xu yu zu ix iy iz
5401 2 5401 19.7346 15.3913 14.0117 0 0 0
ITEM: TIMESTEP
94000
ITEM: NUMBER OF ATOMS
1
ITEM: BOX BOUNDS pp pp pp
0.0000000000000000e+00 3.6000000000000000e+01
0.0000000000000000e+00 3.6000000000000000e+01
0.0000000000000000e+00 3.6000000000000000e+01
ITEM: ATOMS id type mol xu yu zu ix iy iz
5401 2 5401 20.6958 15.7504 14.1123 0 0 0
ITEM: TIMESTEP
95000
ITEM: NUMBER OF ATOMS
1
ITEM: BOX BOUNDS pp pp pp
0.0000000000000000e+00 3.6000000000000000e+01
0.0000000000000000e+00 3.6000000000000000e+01
0.0000000000000000e+00 3.6000000000000000e+01
ITEM: ATOMS id type mol xu yu zu ix iy iz
5401 2 5401 21.0927 15.8558 14.7336 0 0 0
ITEM: TIMESTEP
96000
ITEM: NUMBER OF ATOMS
1
ITEM: BOX BOUNDS pp pp pp
0.0000000000000000e+00 3.6000000000000000e+01
0.0000000000000000e+00 3.6000000000000000e+01
0.0000000000000000e+00 3.6000000000000000e+01
ITEM: ATOMS id type mol xu yu zu ix iy iz
5401 2 5401 21.4334 16.4598 14.8237 0 0 0
ITEM: TIMESTEP
97000
ITEM: NUMBER OF ATOMS
1
ITEM: BOX BOUNDS pp pp pp
0.0000000000000000e+00 3.6000000000000000e+01
0.0000000000000000e+00 3.6000000000000000e+01
0.0000000000000000e+00 3.6000000000000000e+01
ITEM: ATOMS id type mol xu yu zu ix iy iz
5401 2 5401 21.5563 16.0311 14.9906 0 0 0
ITEM: TIMESTEP
98000
ITEM: NUMBER OF ATOMS
1
ITEM: BOX BOUNDS pp pp pp
0.0000000000000000e+00 3.6000000000000000e+01
0.0000000000000000e+00 3.6000000000000000e+01
0.0000000000000000e+00 3.6000000000000000e+01
ITEM: ATOMS id type mol xu yu zu ix iy iz
5401 2 5401 22.0158 15.4914 14.9882 0 0 0
ITEM: TIMESTEP
99000
ITEM: NUMBER OF ATOMS
1
ITEM: BOX BOUNDS pp pp pp
0.0000000000000000e+00 3.6000000000000000e+01
0.0000000000000000e+00 3.6000000000000000e+01
0.0000000000000000e+00 3.6000000000000000e+01
ITEM: ATOMS id type mol xu yu zu ix iy iz
5401 2 5401 21.633 15.0589 15.7327 0 0 0
ITEM: TIMESTEP
100000
ITEM: NUMBER OF ATOMS
1
ITEM: BOX BOUNDS pp pp pp
0.0000000000000000e+00 3.6000000000000000e+01
0.0000000000000000e+00 3.6000000000000000e+01
0.0000000000000000e+00 3.6000000000000000e+01
ITEM: ATOMS id type mol xu yu zu ix iy iz
5401 2 5401 21.9187 15.2154 15.8765 0 0 0
ITEM: TIMESTEP
101000
ITEM: NUMBER OF ATOMS
1
ITEM: BOX BOUNDS pp pp pp
0.0000000000000000e+00 3.6000000000000000e+01
0.0000000000000000e+00 3.6000000000000000e+01
0.0000000000000000e+00 3.6000000000000000e+01
ITEM: ATOMS id type mol xu yu zu ix iy iz
5401 2 5401 22.3691 15.1312 16.1187 0 0 0
ITEM: TIMESTEP
102000
ITEM: NUMBER OF ATOMS
1
ITEM: BOX BOUNDS pp pp pp
0.0000000000000000e+00 3.6000000000000000e+01